CC = gcc
SRC = main.c holberton.c
OBJ = $(SRC:.c=.o)
NAME = holberton
RM = rm -f
CFLAGS = -Wall -Werror -Wextra -pedantic

# make all files executable
all: m.h $(OBJ)
	$(CC) $(OBJ) -o $(NAME)

# delete temporary files and executable
clean:
	$(RM) *~ $(NAME)

# deletes the object files
oclean:
	$(RM) $(OBJ)

# deletes tmp files, executable anf object files
fclean: clean oclean

# Forces recompilation of all source files
re: oclean all
